Title: MrT sim-spice
Date: Wed Feb 22 15:01:47  2017
Plotname: Operating Point
Flags: real
No. Variables: 4
No. Points: 1       
Command: version 2.31 $Revision: 200 $
Variables:
	0	V(1)	voltage
	1	V(6)	voltage
	2	V(8)	voltage
	3	v1#branch	current
Values:
0		1.000000000000000e+001
	4.999997500001251e-006
	9.980039920159680e+000
	-1.996008984031583e-002
