Title: MrT sim-spice
Date: Wed Feb 22 18:47:34  2017
Plotname: Operating Point
Flags: real
No. Variables: 3
No. Points: 1       
Command: version 2.31 $Revision: 200 $
Variables:
	0	V(1)	voltage
	1	V(4)	voltage
	2	v1#branch	current
Values:
0		1.000000000000000e+001
	4.999997500001251e-006
	-9.999995000002500e-009
