Title: MrT sim-spice
Date: Thu Feb 23 09:41:00  2017
Plotname: Operating Point
Flags: real
No. Variables: 4
No. Points: 1       
Command: version 2.31 $Revision: 200 $
Variables:
	0	V(1)	voltage
	1	V(3)	voltage
	2	V(7)	voltage
	3	v1#branch	current
Values:
0		1.000000000000000e+001
	4.999997500001251e-006
	4.999997500001251e-006
	-1.999999000000500e-008
