Title: MrT sim-spice
Date: Thu Feb 23 00:43:24  2017
Plotname: Operating Point
Flags: real
No. Variables: 5
No. Points: 1       
Command: version 2.31 $Revision: 200 $
Variables:
	0	V(1)	voltage
	1	V(3)	voltage
	2	V(8)	voltage
	3	V(12)	voltage
	4	v1#branch	current
Values:
0		1.000000000000000e+001
	4.999997500001251e-006
	4.999997500001251e-006
	9.999999999999998e+000
	-1.999999000000501e-008
