Title: MrT sim-spice
Date: Wed Feb 22 11:13:43  2017
Plotname: Operating Point
Flags: real
No. Variables: 6
No. Points: 1       
Command: version 2.31 $Revision: 200 $
Variables:
	0	V(1)	voltage
	1	V(7)	voltage
	2	V(11)	voltage
	3	V(14)	voltage
	4	V(21)	voltage
	5	v1#branch	current
Values:
0		1.000000000000000e+001
	4.999997500001251e-006
	5.000001249999687e+000
	2.499999375000156e-006
	9.999990000010002e-006
	-2.000003499997375e-002
